14
	Energy:      10.8228377
C         -0.72969        0.01181        0.28814
N          0.32229        1.01993        0.18090
C         -0.12533       -1.31959        0.70116
C         -0.26114       -2.47642        0.02858
C         -1.55534       -0.02320       -1.00469
N          0.34844       -3.66375        0.50202
H         -0.12200        1.94980        0.00338
H          0.80597        1.09823        1.10492
H          0.91855       -3.67746        1.36078
H          0.45821       -1.32223        1.61771
H         -0.83778       -2.53516       -0.88658
H         -0.91360       -0.30097       -1.86861
H         -2.39144       -0.74702       -0.90910
H         -1.99484        0.97764       -1.19854
