23
	Energy:      22.7521878
C          1.85309       -3.45459       -1.28896
C          2.26247       -4.86990       -1.76267
C          1.89191       -3.45431        0.25166
C          2.89684       -2.46204       -1.84451
C          0.04437       -0.76238       -0.68646
C         -0.39860       -1.92178       -1.53804
C          0.41213       -3.18380       -1.84345
N         -1.58138       -1.84142       -2.04368
H         -0.22675       -4.02855       -1.50317
H          3.27958       -5.13416       -1.39940
H          2.26818       -4.93255       -2.87264
H          1.55494       -5.63622       -1.37737
H          1.13554       -4.15684        0.66277
H          1.71975       -2.45382        0.67436
H          2.89406       -3.76651        0.61581
H         -0.74024        0.02506       -0.66970
H          0.95469       -0.28762       -1.09056
H          0.17978       -1.06612        0.36579
H          0.47497       -3.24577       -2.95362
H         -1.97790       -2.59113       -2.62934
H          2.90931       -2.48431       -2.95565
H          3.91473       -2.73386       -1.48717
H          2.71368       -1.42573       -1.51830
